<?xml version="1.0" encoding="UTF-8"?>

<!-- generated on 廿十九年五月八日 (週三) 十四時53分十八秒 by SUMO gui Version 0.30.0
<?xml version="1.0" encoding="UTF-8"?>

<configuration xmlns:xsi="http://www.w3.org/2001/XMLSchema-instance" xsi:noNamespaceSchemaLocation="http://sumo.dlr.de/xsd/sumoConfiguration.xsd">

    <input>
        <net-file value="alameda/alameda.net.xml"/>
        <route-files value="alameda/alameda500.rou.xml"/>
        <additional-files value="alameda/optimize_alameda.add.xml"/>
    </input>

    <output>
        <tripinfo-output value="out.xml"/>
        <tripinfo-output.write-unfinished value="true"/>
    </output>

    <time>
        <begin value="0"/>
        <end value="500"/>
    </time>

    <processing>
        <ignore-route-errors value="true"/>
    </processing>

    <report>
        <no-warnings value="true"/>
        <duration-log.statistics value="false"/>
        <no-step-log value="true"/>
    </report>

    <gui_only>
        <gui-settings-file value="osm.view.xml"/>
    </gui_only>

</configuration>
-->

<tripinfos xmlns:xsi="http://www.w3.org/2001/XMLSchema-instance" xsi:noNamespaceSchemaLocation="http://sumo.dlr.de/xsd/tripinfo_file.xsd">
    <tripinfo id="18" depart="9.00" departLane="-146544715#0_0" departPos="5.10" departSpeed="0.00" departDelay="0.00" arrival="16.00" arrivalLane="146544715#2_0" arrivalPos="9.13" arrivalSpeed="13.26" duration="7.00" routeLength="51.81" waitSteps="0" timeLoss="4.53" rerouteNo="0" devices="tripinfo_18" vType="passenger" speedFactor="1.00" vaporized=""/>
    <tripinfo id="14" depart="7.00" departLane="34474997#8_0" departPos="5.10" departSpeed="0.00" departDelay="0.00" arrival="32.00" arrivalLane="35901888#4_0" arrivalPos="88.16" arrivalSpeed="13.77" duration="25.00" routeLength="276.37" waitSteps="0" timeLoss="4.93" rerouteNo="0" devices="tripinfo_14" vType="passenger" speedFactor="1.00" vaporized=""/>
    <tripinfo id="35" depart="17.00" departLane="190525285#5_2" departPos="5.10" departSpeed="0.00" departDelay="-0.50" arrival="33.00" arrivalLane="255925785#2_0" arrivalPos="6.80" arrivalSpeed="27.02" duration="16.00" routeLength="209.29" waitSteps="0" timeLoss="7.70" rerouteNo="0" devices="tripinfo_35" vType="passenger" speedFactor="1.00" vaporized=""/>
    <tripinfo id="37" depart="18.00" departLane="511066443#1_0" departPos="5.10" departSpeed="0.00" departDelay="-0.50" arrival="41.00" arrivalLane="357424594#2_0" arrivalPos="3.46" arrivalSpeed="5.23" duration="23.00" routeLength="105.33" waitSteps="8" timeLoss="15.32" rerouteNo="0" devices="tripinfo_37" vType="passenger" speedFactor="1.00" vaporized=""/>
    <tripinfo id="12" depart="6.00" departLane="35773427#3_0" departPos="5.10" departSpeed="0.00" departDelay="0.00" arrival="44.00" arrivalLane="30098185#3_0" arrivalPos="25.34" arrivalSpeed="13.24" duration="38.00" routeLength="165.37" waitSteps="19" timeLoss="25.95" rerouteNo="0" devices="tripinfo_12" vType="passenger" speedFactor="1.00" vaporized=""/>
    <tripinfo id="64" depart="32.00" departLane="61335135#0_0" departPos="5.10" departSpeed="0.00" departDelay="0.00" arrival="46.00" arrivalLane="35903288_0" arrivalPos="25.01" arrivalSpeed="13.85" duration="14.00" routeLength="131.86" waitSteps="0" timeLoss="3.94" rerouteNo="0" devices="tripinfo_64" vType="passenger" speedFactor="1.00" vaporized=""/>
    <tripinfo id="19" depart="9.00" departLane="190525285#1_2" departPos="0.16" departSpeed="0.00" departDelay="-0.50" arrival="49.00" arrivalLane="448479840#1_0" arrivalPos="37.25" arrivalSpeed="18.09" duration="40.00" routeLength="692.79" waitSteps="0" timeLoss="14.80" rerouteNo="0" devices="tripinfo_19" vType="passenger" speedFactor="1.00" vaporized=""/>
    <tripinfo id="5" depart="2.00" departLane="511066518#1_0" departPos="5.10" departSpeed="0.00" departDelay="-0.50" arrival="53.00" arrivalLane="35901833#2_0" arrivalPos="16.95" arrivalSpeed="12.65" duration="51.00" routeLength="344.64" waitSteps="15" timeLoss="25.58" rerouteNo="0" devices="tripinfo_5" vType="passenger" speedFactor="1.00" vaporized=""/>
    <tripinfo id="106" depart="53.00" departLane="61279128#2_0" departPos="5.10" departSpeed="0.00" departDelay="0.00" arrival="57.00" arrivalLane="61279128#3_0" arrivalPos="18.70" arrivalSpeed="8.69" duration="4.00" routeLength="22.23" waitSteps="0" timeLoss="2.99" rerouteNo="0" devices="tripinfo_106" vType="passenger" speedFactor="1.00" vaporized=""/>
    <tripinfo id="38" depart="19.00" departLane="35901833#0_0" departPos="3.49" departSpeed="0.00" departDelay="0.00" arrival="60.00" arrivalLane="23162032#0_0" arrivalPos="18.16" arrivalSpeed="22.29" duration="41.00" routeLength="239.34" waitSteps="13" timeLoss="26.15" rerouteNo="0" devices="tripinfo_38" vType="passenger" speedFactor="1.00" vaporized=""/>
    <tripinfo id="27" depart="13.00" departLane="190816349#3_0" departPos="5.10" departSpeed="0.00" departDelay="-0.50" arrival="61.00" arrivalLane="255925785#1_1" arrivalPos="37.89" arrivalSpeed="14.14" duration="48.00" routeLength="278.84" waitSteps="15" timeLoss="31.10" rerouteNo="0" devices="tripinfo_27" vType="passenger" speedFactor="1.00" vaporized=""/>
    <tripinfo id="51" depart="25.00" departLane="35902033#0_0" departPos="5.10" departSpeed="0.00" departDelay="-0.50" arrival="71.00" arrivalLane="34475191#1_0" arrivalPos="76.62" arrivalSpeed="12.94" duration="46.00" routeLength="361.83" waitSteps="7" timeLoss="19.21" rerouteNo="0" devices="tripinfo_51" vType="passenger" speedFactor="1.00" vaporized=""/>
    <tripinfo id="81" depart="40.00" departLane="190816349#2_1" departPos="3.36" departSpeed="0.00" departDelay="-0.50" arrival="72.00" arrivalLane="358195673_0" arrivalPos="8.41" arrivalSpeed="13.11" duration="32.00" routeLength="335.35" waitSteps="0" timeLoss="6.94" rerouteNo="0" devices="tripinfo_81" vType="passenger" speedFactor="1.00" vaporized=""/>
    <tripinfo id="32" depart="16.00" departLane="190525294#3_0" departPos="5.10" departSpeed="0.00" departDelay="0.00" arrival="77.00" arrivalLane="511066530_1" arrivalPos="0.20" arrivalSpeed="13.09" duration="61.00" routeLength="849.84" waitSteps="0" timeLoss="18.10" rerouteNo="0" devices="tripinfo_32" vType="passenger" speedFactor="1.00" vaporized=""/>
    <tripinfo id="8" depart="4.00" departLane="191454927#1_0" departPos="0.20" departSpeed="0.00" departDelay="0.00" arrival="80.00" arrivalLane="61279128#1_0" arrivalPos="86.73" arrivalSpeed="21.11" duration="76.00" routeLength="352.86" waitSteps="40" timeLoss="59.55" rerouteNo="0" devices="tripinfo_8" vType="passenger" speedFactor="1.00" vaporized=""/>
    <tripinfo id="7" depart="3.00" departLane="357424594#0_2" departPos="5.10" departSpeed="0.00" departDelay="-0.50" arrival="82.00" arrivalLane="35903338_0" arrivalPos="23.50" arrivalSpeed="12.67" duration="79.00" routeLength="431.81" waitSteps="28" timeLoss="56.05" rerouteNo="0" devices="tripinfo_7" vType="passenger" speedFactor="1.00" vaporized=""/>
    <tripinfo id="40" depart="20.00" departLane="23162032#7_0" departPos="5.10" departSpeed="0.00" departDelay="0.00" arrival="83.00" arrivalLane="190816349#4_0" arrivalPos="2.87" arrivalSpeed="13.09" duration="63.00" routeLength="310.19" waitSteps="30" timeLoss="40.47" rerouteNo="0" devices="tripinfo_40" vType="passenger" speedFactor="1.00" vaporized=""/>
    <tripinfo id="58" depart="29.00" departLane="35902564#3_0" departPos="5.10" departSpeed="0.00" departDelay="0.00" arrival="84.00" arrivalLane="358089846_0" arrivalPos="18.04" arrivalSpeed="13.78" duration="55.00" routeLength="162.57" waitSteps="28" timeLoss="44.23" rerouteNo="0" devices="tripinfo_58" vType="passenger" speedFactor="1.00" vaporized=""/>
    <tripinfo id="131" depart="65.00" departLane="23051254#0_0" departPos="5.10" departSpeed="0.00" departDelay="-0.50" arrival="87.00" arrivalLane="23051254#1_0" arrivalPos="371.05" arrivalSpeed="27.01" duration="22.00" routeLength="388.92" waitSteps="0" timeLoss="7.34" rerouteNo="0" devices="tripinfo_131" vType="passenger" speedFactor="1.00" vaporized=""/>
    <tripinfo id="6" depart="3.00" departLane="23161464#0_2" departPos="5.10" departSpeed="0.00" departDelay="0.00" arrival="88.00" arrivalLane="190525294#0_1" arrivalPos="5.21" arrivalSpeed="19.50" duration="85.00" routeLength="983.60" waitSteps="3" timeLoss="28.40" rerouteNo="0" devices="tripinfo_6" vType="passenger" speedFactor="1.00" vaporized=""/>
    <tripinfo id="92" depart="46.00" departLane="61335135#0_0" departPos="5.10" departSpeed="0.00" departDelay="0.00" arrival="88.00" arrivalLane="27131168#0_1" arrivalPos="35.34" arrivalSpeed="16.93" duration="42.00" routeLength="286.39" waitSteps="12" timeLoss="22.87" rerouteNo="0" devices="tripinfo_92" vType="passenger" speedFactor="1.00" vaporized=""/>
    <tripinfo id="97" depart="48.00" departLane="35900161#2_0" departPos="2.57" departSpeed="0.00" departDelay="-0.50" arrival="90.00" arrivalLane="448479840#1_1" arrivalPos="37.25" arrivalSpeed="12.24" duration="42.00" routeLength="84.76" waitSteps="27" timeLoss="38.66" rerouteNo="0" devices="tripinfo_97" vType="passenger" speedFactor="1.00" vaporized=""/>
    <tripinfo id="44" depart="22.00" departLane="358055149_1" departPos="5.10" departSpeed="0.00" departDelay="0.00" arrival="91.00" arrivalLane="191454927#1_0" arrivalPos="0.20" arrivalSpeed="10.52" duration="69.00" routeLength="283.23" waitSteps="24" timeLoss="49.24" rerouteNo="0" devices="tripinfo_44" vType="passenger" speedFactor="1.00" vaporized=""/>
    <tripinfo id="103" depart="64.00" departLane="511066443#1_2" departPos="5.10" departSpeed="0.00" departDelay="12.50" arrival="94.00" arrivalLane="146196600#1_1" arrivalPos="2.01" arrivalSpeed="8.41" duration="30.00" routeLength="120.49" waitSteps="8" timeLoss="21.49" rerouteNo="0" devices="tripinfo_103" vType="passenger" speedFactor="1.00" vaporized=""/>
    <tripinfo id="39" depart="19.00" departLane="27617865_0" departPos="5.10" departSpeed="0.00" departDelay="-0.50" arrival="94.00" arrivalLane="35901888#1_0" arrivalPos="17.90" arrivalSpeed="12.73" duration="75.00" routeLength="451.67" waitSteps="12" timeLoss="45.03" rerouteNo="0" devices="tripinfo_39" vType="passenger" speedFactor="1.00" vaporized=""/>
    <tripinfo id="56" depart="28.00" departLane="511066443#1_2" departPos="5.10" departSpeed="0.00" departDelay="0.00" arrival="96.00" arrivalLane="358195673_2" arrivalPos="8.41" arrivalSpeed="13.42" duration="68.00" routeLength="224.43" waitSteps="41" timeLoss="52.07" rerouteNo="0" devices="tripinfo_56" vType="passenger" speedFactor="1.00" vaporized=""/>
    <tripinfo id="26" depart="14.00" departLane="23161464#1_2" departPos="4.01" departSpeed="0.00" departDelay="1.00" arrival="97.00" arrivalLane="27617819#0_0" arrivalPos="6.29" arrivalSpeed="12.14" duration="83.00" routeLength="855.36" waitSteps="6" timeLoss="33.49" rerouteNo="0" devices="tripinfo_26" vType="passenger" speedFactor="1.00" vaporized=""/>
    <tripinfo id="10" depart="5.00" departLane="27617819#4_2" departPos="5.10" departSpeed="0.00" departDelay="0.00" arrival="97.00" arrivalLane="35903288_0" arrivalPos="25.01" arrivalSpeed="13.57" duration="92.00" routeLength="577.85" waitSteps="23" timeLoss="57.95" rerouteNo="0" devices="tripinfo_10" vType="passenger" speedFactor="1.00" vaporized=""/>
    <tripinfo id="4" depart="2.00" departLane="34475191#3_0" departPos="5.10" departSpeed="0.00" departDelay="0.00" arrival="98.00" arrivalLane="358195673_1" arrivalPos="8.41" arrivalSpeed="12.87" duration="96.00" routeLength="438.97" waitSteps="35" timeLoss="64.04" rerouteNo="0" devices="tripinfo_4" vType="passenger" speedFactor="1.00" vaporized=""/>
    <tripinfo id="45" depart="22.00" departLane="35773427#5_0" departPos="5.10" departSpeed="0.00" departDelay="-0.50" arrival="100.00" arrivalLane="448479840#1_1" arrivalPos="37.25" arrivalSpeed="23.31" duration="78.00" routeLength="307.60" waitSteps="33" timeLoss="63.48" rerouteNo="0" devices="tripinfo_45" vType="passenger" speedFactor="1.00" vaporized=""/>
    <tripinfo id="96" depart="48.00" departLane="34475191#3_0" departPos="5.10" departSpeed="0.00" departDelay="0.00" arrival="102.00" arrivalLane="30098185#5_0" arrivalPos="34.56" arrivalSpeed="13.77" duration="54.00" routeLength="151.69" waitSteps="34" timeLoss="42.19" rerouteNo="0" devices="tripinfo_96" vType="passenger" speedFactor="1.00" vaporized=""/>
    <tripinfo id="23" depart="11.00" departLane="34474997#1_0" departPos="5.10" departSpeed="0.00" departDelay="-0.50" arrival="104.00" arrivalLane="35903166#1_0" arrivalPos="2.85" arrivalSpeed="11.87" duration="93.00" routeLength="686.71" waitSteps="16" timeLoss="58.09" rerouteNo="0" devices="tripinfo_23" vType="passenger" speedFactor="1.00" vaporized=""/>
    <tripinfo id="60" depart="30.00" departLane="35903288_0" departPos="5.10" departSpeed="0.00" departDelay="0.00" arrival="104.00" arrivalLane="146544715#2_0" arrivalPos="9.13" arrivalSpeed="11.55" duration="74.00" routeLength="157.92" waitSteps="53" timeLoss="66.00" rerouteNo="0" devices="tripinfo_60" vType="passenger" speedFactor="1.00" vaporized=""/>
    <tripinfo id="99" depart="49.00" departLane="27617819#7_2" departPos="5.10" departSpeed="0.00" departDelay="-0.50" arrival="105.00" arrivalLane="72456715#1_1" arrivalPos="29.33" arrivalSpeed="13.31" duration="56.00" routeLength="252.26" waitSteps="28" timeLoss="38.15" rerouteNo="0" devices="tripinfo_99" vType="passenger" speedFactor="1.00" vaporized=""/>
    <tripinfo id="55" depart="27.00" departLane="357424594#2_2" departPos="3.46" departSpeed="0.00" departDelay="-0.50" arrival="105.00" arrivalLane="357424594#1_2" arrivalPos="78.70" arrivalSpeed="7.95" duration="78.00" routeLength="235.36" waitSteps="43" timeLoss="61.30" rerouteNo="0" devices="tripinfo_55" vType="passenger" speedFactor="1.00" vaporized=""/>
    <tripinfo id="76" depart="38.00" departLane="27617819#0_2" departPos="5.10" departSpeed="0.00" departDelay="0.00" arrival="108.00" arrivalLane="191454927#1_0" arrivalPos="0.20" arrivalSpeed="11.64" duration="70.00" routeLength="244.83" waitSteps="32" timeLoss="53.13" rerouteNo="0" devices="tripinfo_76" vType="passenger" speedFactor="1.00" vaporized=""/>
    <tripinfo id="46" depart="32.00" departLane="-359227314#1_0" departPos="0.69" departSpeed="0.00" departDelay="9.00" arrival="108.00" arrivalLane="190525294#4_1" arrivalPos="43.22" arrivalSpeed="21.45" duration="76.00" routeLength="1021.15" waitSteps="0" timeLoss="25.73" rerouteNo="0" devices="tripinfo_46" vType="passenger" speedFactor="1.00" vaporized=""/>
    <tripinfo id="98" depart="49.00" departLane="190816349#0_0" departPos="2.17" departSpeed="0.00" departDelay="0.00" arrival="109.00" arrivalLane="23162040#0_0" arrivalPos="96.53" arrivalSpeed="13.64" duration="60.00" routeLength="406.02" waitSteps="21" timeLoss="31.10" rerouteNo="0" devices="tripinfo_98" vType="passenger" speedFactor="1.00" vaporized=""/>
    <tripinfo id="133" depart="69.00" departLane="34474997#6_0" departPos="5.10" departSpeed="0.00" departDelay="2.50" arrival="116.00" arrivalLane="511066434_1" arrivalPos="41.91" arrivalSpeed="5.00" duration="47.00" routeLength="319.63" waitSteps="5" timeLoss="30.13" rerouteNo="0" devices="tripinfo_133" vType="passenger" speedFactor="1.00" vaporized=""/>
    <tripinfo id="57" depart="28.00" departLane="357575329_0" departPos="5.10" departSpeed="0.00" departDelay="-0.50" arrival="118.00" arrivalLane="61279128#0_0" arrivalPos="48.31" arrivalSpeed="15.66" duration="90.00" routeLength="527.79" waitSteps="40" timeLoss="58.98" rerouteNo="0" devices="tripinfo_57" vType="passenger" speedFactor="1.00" vaporized=""/>
    <tripinfo id="152" depart="76.00" departLane="358195684_0" departPos="5.10" departSpeed="0.00" departDelay="0.00" arrival="119.00" arrivalLane="34474997#0_0" arrivalPos="13.63" arrivalSpeed="21.18" duration="43.00" routeLength="332.43" waitSteps="3" timeLoss="30.40" rerouteNo="0" devices="tripinfo_152" vType="passenger" speedFactor="1.00" vaporized=""/>
    <tripinfo id="1" depart="0.00" departLane="35902125#2_0" departPos="5.10" departSpeed="0.00" departDelay="-0.50" arrival="121.00" arrivalLane="349851327#1_0" arrivalPos="37.57" arrivalSpeed="13.25" duration="121.00" routeLength="407.20" waitSteps="68" timeLoss="90.91" rerouteNo="0" devices="tripinfo_1" vType="passenger" speedFactor="1.00" vaporized=""/>
    <tripinfo id="34" depart="17.00" departLane="34474997#8_0" departPos="5.10" departSpeed="0.00" departDelay="0.00" arrival="121.00" arrivalLane="146546027#1_0" arrivalPos="1.57" arrivalSpeed="13.66" duration="104.00" routeLength="529.73" waitSteps="51" timeLoss="69.33" rerouteNo="0" devices="tripinfo_34" vType="passenger" speedFactor="1.00" vaporized=""/>
    <tripinfo id="166" depart="83.00" departLane="35902033#0_0" departPos="5.10" departSpeed="0.00" departDelay="0.00" arrival="122.00" arrivalLane="27617819#4_1" arrivalPos="25.68" arrivalSpeed="13.14" duration="39.00" routeLength="409.84" waitSteps="0" timeLoss="8.58" rerouteNo="0" devices="tripinfo_166" vType="passenger" speedFactor="1.00" vaporized=""/>
    <tripinfo id="175" depart="87.00" departLane="-255925785#0_1" departPos="5.10" departSpeed="0.00" departDelay="-0.50" arrival="123.00" arrivalLane="23162040#1_0" arrivalPos="21.74" arrivalSpeed="10.08" duration="36.00" routeLength="248.92" waitSteps="5" timeLoss="20.52" rerouteNo="0" devices="tripinfo_175" vType="passenger" speedFactor="1.00" vaporized=""/>
    <tripinfo id="66" depart="33.00" departLane="-349851317#1_0" departPos="5.10" departSpeed="0.00" departDelay="0.00" arrival="126.00" arrivalLane="27617819#6_2" arrivalPos="31.67" arrivalSpeed="6.15" duration="93.00" routeLength="225.99" waitSteps="42" timeLoss="67.83" rerouteNo="0" devices="tripinfo_66" vType="passenger" speedFactor="1.00" vaporized=""/>
    <tripinfo id="74" depart="39.00" departLane="23162032#5_0" departPos="5.10" departSpeed="0.00" departDelay="2.00" arrival="128.00" arrivalLane="27617819#3_1" arrivalPos="23.31" arrivalSpeed="12.67" duration="89.00" routeLength="169.37" waitSteps="57" timeLoss="79.19" rerouteNo="0" devices="tripinfo_74" vType="passenger" speedFactor="1.00" vaporized=""/>
    <tripinfo id="61" depart="30.00" departLane="35773427#1_0" departPos="5.10" departSpeed="0.00" departDelay="-0.50" arrival="129.00" arrivalLane="34474997#7_0" arrivalPos="36.71" arrivalSpeed="15.94" duration="99.00" routeLength="227.78" waitSteps="63" timeLoss="84.83" rerouteNo="0" devices="tripinfo_61" vType="passenger" speedFactor="1.00" vaporized=""/>
    <tripinfo id="160" depart="105.00" departLane="349851315_0" departPos="5.10" departSpeed="0.00" departDelay="25.00" arrival="130.00" arrivalLane="35902564#0_0" arrivalPos="90.06" arrivalSpeed="13.82" duration="25.00" routeLength="264.24" waitSteps="0" timeLoss="5.76" rerouteNo="0" devices="tripinfo_160" vType="passenger" speedFactor="1.00" vaporized=""/>
    <tripinfo id="43" depart="21.00" departLane="190525294#2_0" departPos="5.10" departSpeed="0.00" departDelay="-0.50" arrival="131.00" arrivalLane="35902564#3_0" arrivalPos="20.91" arrivalSpeed="4.96" duration="110.00" routeLength="671.66" waitSteps="63" timeLoss="81.98" rerouteNo="0" devices="tripinfo_43" vType="passenger" speedFactor="1.00" vaporized=""/>
    <tripinfo id="13" depart="6.00" departLane="190816349#3_0" departPos="5.10" departSpeed="0.00" departDelay="-0.50" arrival="134.00" arrivalLane="511066443#1_0" arrivalPos="5.58" arrivalSpeed="13.80" duration="128.00" routeLength="1391.07" waitSteps="36" timeLoss="65.36" rerouteNo="0" devices="tripinfo_13" vType="passenger" speedFactor="1.00" vaporized=""/>
    <tripinfo id="122" depart="61.00" departLane="190525285#1_2" departPos="0.16" departSpeed="0.00" departDelay="0.00" arrival="135.00" arrivalLane="255925785#0_0" arrivalPos="6.31" arrivalSpeed="12.09" duration="74.00" routeLength="312.74" waitSteps="47" timeLoss="62.48" rerouteNo="0" devices="tripinfo_122" vType="passenger" speedFactor="1.00" vaporized=""/>
    <tripinfo id="75" depart="37.00" departLane="-349851317#0_0" departPos="5.10" departSpeed="0.00" departDelay="-0.50" arrival="135.00" arrivalLane="35902564#3_0" arrivalPos="20.91" arrivalSpeed="13.41" duration="98.00" routeLength="412.86" waitSteps="50" timeLoss="66.92" rerouteNo="0" devices="tripinfo_75" vType="passenger" speedFactor="1.00" vaporized=""/>
    <tripinfo id="70" depart="37.00" departLane="35902125#3_0" departPos="5.10" departSpeed="0.00" departDelay="2.00" arrival="137.00" arrivalLane="511066530_1" arrivalPos="0.20" arrivalSpeed="12.74" duration="100.00" routeLength="707.98" waitSteps="23" timeLoss="57.45" rerouteNo="0" devices="tripinfo_70" vType="passenger" speedFactor="1.00" vaporized=""/>
    <tripinfo id="82" depart="42.00" departLane="34474997#5_0" departPos="5.10" departSpeed="0.00" departDelay="1.00" arrival="140.00" arrivalLane="-277000208#0_1" arrivalPos="21.84" arrivalSpeed="12.20" duration="98.00" routeLength="587.97" waitSteps="36" timeLoss="63.30" rerouteNo="0" devices="tripinfo_82" vType="passenger" speedFactor="1.00" vaporized=""/>
    <tripinfo id="153" depart="76.00" departLane="-255925785#0_1" departPos="5.10" departSpeed="0.00" departDelay="-0.50" arrival="140.00" arrivalLane="146544718_1" arrivalPos="22.98" arrivalSpeed="13.35" duration="64.00" routeLength="476.29" waitSteps="16" timeLoss="31.81" rerouteNo="0" devices="tripinfo_153" vType="passenger" speedFactor="1.00" vaporized=""/>
    <tripinfo id="112" depart="56.00" departLane="23051255#2_0" departPos="4.90" departSpeed="0.00" departDelay="0.00" arrival="140.00" arrivalLane="35901598#3_0" arrivalPos="105.67" arrivalSpeed="13.50" duration="84.00" routeLength="538.32" waitSteps="33" timeLoss="47.06" rerouteNo="0" devices="tripinfo_112" vType="passenger" speedFactor="1.00" vaporized=""/>
    <tripinfo id="196" depart="98.00" departLane="190525285#0_2" departPos="5.10" departSpeed="0.00" departDelay="0.00" arrival="143.00" arrivalLane="23162032#2_1" arrivalPos="26.58" arrivalSpeed="20.45" duration="45.00" routeLength="406.25" waitSteps="8" timeLoss="29.82" rerouteNo="0" devices="tripinfo_196" vType="passenger" speedFactor="1.00" vaporized=""/>
    <tripinfo id="42" depart="21.00" departLane="35773427#1_0" departPos="5.10" departSpeed="0.00" departDelay="0.00" arrival="145.00" arrivalLane="190525294#5_0" arrivalPos="16.63" arrivalSpeed="17.27" duration="124.00" routeLength="357.50" waitSteps="72" timeLoss="99.95" rerouteNo="0" devices="tripinfo_42" vType="passenger" speedFactor="1.00" vaporized=""/>
    <tripinfo id="24" depart="12.00" departLane="402281056_0" departPos="5.10" departSpeed="0.00" departDelay="0.00" arrival="145.00" arrivalLane="35773427#6_0" arrivalPos="55.49" arrivalSpeed="13.85" duration="133.00" routeLength="624.45" waitSteps="65" timeLoss="87.89" rerouteNo="0" devices="tripinfo_24" vType="passenger" speedFactor="1.00" vaporized=""/>
    <tripinfo id="194" depart="97.00" departLane="35901888#0_0" departPos="4.90" departSpeed="0.00" departDelay="0.00" arrival="147.00" arrivalLane="27617819#7_1" arrivalPos="7.19" arrivalSpeed="12.91" duration="50.00" routeLength="330.48" waitSteps="16" timeLoss="25.87" rerouteNo="0" devices="tripinfo_194" vType="passenger" speedFactor="1.00" vaporized=""/>
    <tripinfo id="54" depart="27.00" departLane="23162032#1_0" departPos="5.10" departSpeed="0.00" departDelay="0.00" arrival="148.00" arrivalLane="190816349#1_0" arrivalPos="44.93" arrivalSpeed="13.27" duration="121.00" routeLength="494.77" waitSteps="69" timeLoss="93.39" rerouteNo="0" devices="tripinfo_54" vType="passenger" speedFactor="1.00" vaporized=""/>
    <tripinfo id="262" depart="131.00" departLane="35903288_0" departPos="5.10" departSpeed="0.00" departDelay="0.00" arrival="151.00" arrivalLane="61279128#2_0" arrivalPos="6.06" arrivalSpeed="22.14" duration="20.00" routeLength="191.09" waitSteps="0" timeLoss="10.71" rerouteNo="0" devices="tripinfo_262" vType="passenger" speedFactor="1.00" vaporized=""/>
    <tripinfo id="187" depart="93.00" departLane="-255925785#0_1" departPos="5.10" departSpeed="0.00" departDelay="-0.50" arrival="155.00" arrivalLane="35901598#4_0" arrivalPos="120.11" arrivalSpeed="13.06" duration="62.00" routeLength="656.82" waitSteps="1" timeLoss="16.45" rerouteNo="0" devices="tripinfo_187" vType="passenger" speedFactor="1.00" vaporized=""/>
    <tripinfo id="293" depart="146.00" departLane="35902125#3_0" departPos="5.10" departSpeed="0.00" departDelay="-0.50" arrival="156.00" arrivalLane="34475191#2_0" arrivalPos="21.74" arrivalSpeed="12.74" duration="10.00" routeLength="83.76" waitSteps="0" timeLoss="3.31" rerouteNo="0" devices="tripinfo_293" vType="passenger" speedFactor="1.00" vaporized=""/>
    <tripinfo id="95" depart="48.00" departLane="35901833#0_2" departPos="3.49" departSpeed="0.00" departDelay="0.50" arrival="158.00" arrivalLane="190426957#1_0" arrivalPos="21.79" arrivalSpeed="12.21" duration="110.00" routeLength="126.21" waitSteps="86" timeLoss="100.26" rerouteNo="0" devices="tripinfo_95" vType="passenger" speedFactor="1.00" vaporized=""/>
    <tripinfo id="254" depart="127.00" departLane="255925785#2_1" departPos="5.10" departSpeed="0.00" departDelay="0.00" arrival="159.00" arrivalLane="255925785#1_1" arrivalPos="37.89" arrivalSpeed="13.12" duration="32.00" routeLength="92.01" waitSteps="15" timeLoss="28.23" rerouteNo="0" devices="tripinfo_254" vType="passenger" speedFactor="1.00" vaporized=""/>
    <tripinfo id="29" depart="14.00" departLane="190525294#2_0" departPos="5.10" departSpeed="0.00" departDelay="-0.50" arrival="160.00" arrivalLane="-255925785#0_0" arrivalPos="6.31" arrivalSpeed="10.97" duration="146.00" routeLength="1164.91" waitSteps="48" timeLoss="85.25" rerouteNo="0" devices="tripinfo_29" vType="passenger" speedFactor="1.00" vaporized=""/>
    <tripinfo id="216" depart="108.00" departLane="511066483_2" departPos="5.10" departSpeed="0.00" departDelay="0.00" arrival="161.00" arrivalLane="357424594#0_1" arrivalPos="5.44" arrivalSpeed="11.25" duration="53.00" routeLength="125.54" waitSteps="35" timeLoss="43.80" rerouteNo="0" devices="tripinfo_216" vType="passenger" speedFactor="1.00" vaporized=""/>
    <tripinfo id="296" depart="148.00" departLane="358055191#1_2" departPos="5.10" departSpeed="0.00" departDelay="0.00" arrival="162.00" arrivalLane="75503605#1_1" arrivalPos="12.10" arrivalSpeed="5.48" duration="14.00" routeLength="81.44" waitSteps="1" timeLoss="10.95" rerouteNo="0" devices="tripinfo_296" vType="passenger" speedFactor="1.00" vaporized=""/>
    <tripinfo id="123" depart="61.00" departLane="359227314#1_0" departPos="0.82" departSpeed="0.00" departDelay="-0.50" arrival="162.00" arrivalLane="23161464#1_0" arrivalPos="4.01" arrivalSpeed="13.33" duration="101.00" routeLength="410.54" waitSteps="50" timeLoss="71.14" rerouteNo="0" devices="tripinfo_123" vType="passenger" speedFactor="1.00" vaporized=""/>
    <tripinfo id="110" depart="55.00" departLane="27617819#1_1" departPos="5.10" departSpeed="0.00" departDelay="0.00" arrival="162.00" arrivalLane="35901598#1_1" arrivalPos="158.33" arrivalSpeed="12.64" duration="107.00" routeLength="637.57" waitSteps="46" timeLoss="60.20" rerouteNo="0" devices="tripinfo_110" vType="passenger" speedFactor="1.00" vaporized=""/>
    <tripinfo id="225" depart="112.00" departLane="35903288_0" departPos="5.10" departSpeed="0.00" departDelay="-0.50" arrival="163.00" arrivalLane="61335135#2_0" arrivalPos="48.57" arrivalSpeed="13.33" duration="51.00" routeLength="277.47" waitSteps="17" timeLoss="32.55" rerouteNo="0" devices="tripinfo_225" vType="passenger" speedFactor="1.00" vaporized=""/>
    <tripinfo id="172" depart="86.00" departLane="349851317#0_0" departPos="5.10" departSpeed="0.00" departDelay="0.00" arrival="165.00" arrivalLane="30098185#5_0" arrivalPos="34.56" arrivalSpeed="13.19" duration="79.00" routeLength="56.74" waitSteps="63" timeLoss="69.68" rerouteNo="0" devices="tripinfo_172" vType="passenger" speedFactor="1.00" vaporized=""/>
    <tripinfo id="22" depart="11.00" departLane="-255925785#2_0" departPos="5.10" departSpeed="0.00" departDelay="0.00" arrival="165.00" arrivalLane="35902125#4_0" arrivalPos="8.98" arrivalSpeed="13.13" duration="154.00" routeLength="1074.96" waitSteps="68" timeLoss="107.85" rerouteNo="0" devices="tripinfo_22" vType="passenger" speedFactor="1.00" vaporized=""/>
    <tripinfo id="228" depart="114.00" departLane="34474997#1_1" departPos="5.10" departSpeed="0.00" departDelay="0.00" arrival="166.00" arrivalLane="448479840#1_1" arrivalPos="37.25" arrivalSpeed="27.58" duration="52.00" routeLength="343.87" waitSteps="23" timeLoss="38.62" rerouteNo="0" devices="tripinfo_228" vType="passenger" speedFactor="1.00" vaporized=""/>
    <tripinfo id="78" depart="39.00" departLane="190794129#2_0" departPos="5.10" departSpeed="0.00" departDelay="0.00" arrival="167.00" arrivalLane="23162032#8_1" arrivalPos="5.73" arrivalSpeed="26.91" duration="128.00" routeLength="858.80" waitSteps="55" timeLoss="78.52" rerouteNo="0" devices="tripinfo_78" vType="passenger" speedFactor="1.00" vaporized=""/>
    <tripinfo id="272" depart="139.00" departLane="34474997#1_0" departPos="5.10" departSpeed="0.00" departDelay="3.00" arrival="167.00" arrivalLane="511066438_0" arrivalPos="12.71" arrivalSpeed="12.10" duration="28.00" routeLength="221.34" waitSteps="0" timeLoss="15.90" rerouteNo="0" devices="tripinfo_272" vType="passenger" speedFactor="1.00" vaporized=""/>
    <tripinfo id="234" depart="123.00" departLane="34474997#1_0" departPos="5.10" departSpeed="0.00" departDelay="6.00" arrival="167.00" arrivalLane="35773427#4_0" arrivalPos="19.75" arrivalSpeed="13.54" duration="44.00" routeLength="240.03" waitSteps="18" timeLoss="32.32" rerouteNo="0" devices="tripinfo_234" vType="passenger" speedFactor="1.00" vaporized=""/>