<?xml version="1.0" encoding="UTF-8"?>

<!-- generated on Sat Jun 29 22:13:01 2019 by SUMO Version 0.30.0
<?xml version="1.0" encoding="UTF-8"?>

<configuration xmlns:xsi="http://www.w3.org/2001/XMLSchema-instance" xsi:noNamespaceSchemaLocation="http://sumo.dlr.de/xsd/sumoConfiguration.xsd">

    <input>
        <net-file value="map.net.xml"/>
        <route-files value="map.rou.xml"/>
        <additional-files value="map.add.xml"/>
    </input>

    <output>
        <tripinfo-output value="out.xml"/>
        <tripinfo-output.write-unfinished value="true"/>
    </output>

    <time>
        <begin value="0"/>
        <end value="500"/>
    </time>

    <processing>
        <ignore-route-errors value="true"/>
    </processing>

    <report>
        <verbose value="true"/>
        <no-warnings value="true"/>
        <duration-log.statistics value="true"/>
        <no-step-log value="true"/>
    </report>

</configuration>
-->

<tripinfos xmlns:xsi="http://www.w3.org/2001/XMLSchema-instance" xsi:noNamespaceSchemaLocation="http://sumo.dlr.de/xsd/tripinfo_file.xsd">
    <tripinfo id="6" depart="8.00" departLane="25715400#0_0" departPos="4.00" departSpeed="0.00" departDelay="-0.50" arrival="35.00" arrivalLane="-381733807#0_0" arrivalPos="50.25" arrivalSpeed="13.37" duration="27.00" routeLength="323.24" waitSteps="0" timeLoss="3.62" rerouteNo="0" devices="tripinfo_6" vType="passenger" speedFactor="1.00" vaporized=""/>
    <tripinfo id="72" depart="78.00" departLane="106335676#5_0" departPos="5.10" departSpeed="0.00" departDelay="-0.50" arrival="88.00" arrivalLane="106335676#5_0" arrivalPos="96.48" arrivalSpeed="12.70" duration="10.00" routeLength="91.38" waitSteps="0" timeLoss="2.91" rerouteNo="0" devices="tripinfo_72" vType="passenger" speedFactor="1.00" vaporized=""/>
    <tripinfo id="49" depart="54.00" departLane="455330014_0" departPos="1.71" departSpeed="0.00" departDelay="-0.50" arrival="97.00" arrivalLane="5117999#9_3" arrivalPos="34.13" arrivalSpeed="16.42" duration="43.00" routeLength="630.02" waitSteps="2" timeLoss="19.41" rerouteNo="0" devices="tripinfo_49" vType="passenger" speedFactor="1.00" vaporized=""/>
    <tripinfo id="74" depart="79.00" departLane="284566179_0" departPos="5.10" departSpeed="0.00" departDelay="-0.50" arrival="104.00" arrivalLane="-334849020#7_0" arrivalPos="20.44" arrivalSpeed="11.93" duration="25.00" routeLength="234.40" waitSteps="0" timeLoss="7.58" rerouteNo="0" devices="tripinfo_74" vType="passenger" speedFactor="1.00" vaporized=""/>
    <tripinfo id="13" depart="19.00" departLane="-244456575_0" departPos="5.10" departSpeed="0.00" departDelay="0.00" arrival="114.00" arrivalLane="-229885663#2_0" arrivalPos="2.73" arrivalSpeed="13.60" duration="95.00" routeLength="1004.25" waitSteps="14" timeLoss="43.20" rerouteNo="0" devices="tripinfo_13" vType="passenger" speedFactor="1.00" vaporized=""/>
    <tripinfo id="37" depart="43.00" departLane="-293207793#4_1" departPos="1.61" departSpeed="0.00" departDelay="-0.50" arrival="117.00" arrivalLane="198414876#1_0" arrivalPos="26.36" arrivalSpeed="21.53" duration="74.00" routeLength="492.44" waitSteps="43" timeLoss="51.60" rerouteNo="0" devices="tripinfo_37" vType="passenger" speedFactor="1.00" vaporized=""/>
    <tripinfo id="1" depart="1.00" departLane="29043700#1_0" departPos="5.10" departSpeed="0.00" departDelay="-0.50" arrival="124.00" arrivalLane="197130375#4_0" arrivalPos="41.66" arrivalSpeed="21.96" duration="123.00" routeLength="1071.87" waitSteps="46" timeLoss="63.06" rerouteNo="0" devices="tripinfo_1" vType="passenger" speedFactor="1.00" vaporized=""/>
    <tripinfo id="58" depart="63.00" departLane="263480916#2_0" departPos="5.10" departSpeed="0.00" departDelay="0.00" arrival="145.00" arrivalLane="382808015#2_0" arrivalPos="3.43" arrivalSpeed="20.84" duration="82.00" routeLength="297.35" waitSteps="51" timeLoss="63.70" rerouteNo="0" devices="tripinfo_58" vType="passenger" speedFactor="1.00" vaporized=""/>
    <tripinfo id="69" depart="75.00" departLane="515156306_0" departPos="5.10" departSpeed="0.00" departDelay="-0.50" arrival="153.00" arrivalLane="25715402#2_0" arrivalPos="0.20" arrivalSpeed="13.57" duration="78.00" routeLength="536.63" waitSteps="36" timeLoss="54.16" rerouteNo="0" devices="tripinfo_69" vType="passenger" speedFactor="1.00" vaporized=""/>
    <tripinfo id="70" depart="76.00" departLane="131457246#0_0" departPos="3.43" departSpeed="0.00" departDelay="0.00" arrival="157.00" arrivalLane="157964878#28_0" arrivalPos="12.41" arrivalSpeed="13.62" duration="81.00" routeLength="426.50" waitSteps="40" timeLoss="49.33" rerouteNo="0" devices="tripinfo_70" vType="passenger" speedFactor="1.00" vaporized=""/>
    <tripinfo id="88" depart="95.00" departLane="238208425#1_0" departPos="5.10" departSpeed="0.00" departDelay="0.00" arrival="160.00" arrivalLane="270439718_1" arrivalPos="5.43" arrivalSpeed="10.31" duration="65.00" routeLength="1003.43" waitSteps="0" timeLoss="14.17" rerouteNo="0" devices="tripinfo_88" vType="passenger" speedFactor="1.00" vaporized=""/>
    <tripinfo id="52" depart="57.00" departLane="60730604#0_0" departPos="0.20" departSpeed="0.00" departDelay="-0.50" arrival="161.00" arrivalLane="-269478660#0_0" arrivalPos="91.65" arrivalSpeed="12.99" duration="104.00" routeLength="986.19" waitSteps="18" timeLoss="48.62" rerouteNo="0" devices="tripinfo_52" vType="passenger" speedFactor="1.00" vaporized=""/>
    <tripinfo id="4" depart="5.00" departLane="246307710_0" departPos="5.10" departSpeed="0.00" departDelay="0.00" arrival="183.00" arrivalLane="229844763#0_0" arrivalPos="4.72" arrivalSpeed="7.50" duration="178.00" routeLength="1088.55" waitSteps="90" timeLoss="126.07" rerouteNo="0" devices="tripinfo_4" vType="passenger" speedFactor="1.00" vaporized=""/>
    <tripinfo id="3" depart="4.00" departLane="-308976804#4_0" departPos="5.10" departSpeed="0.00" departDelay="0.00" arrival="185.00" arrivalLane="-515156289_0" arrivalPos="0.20" arrivalSpeed="2.54" duration="181.00" routeLength="1254.59" waitSteps="89" timeLoss="129.27" rerouteNo="0" devices="tripinfo_3" vType="passenger" speedFactor="1.00" vaporized=""/>
    <tripinfo id="10" depart="15.00" departLane="509695170#0_0" departPos="0.20" departSpeed="0.00" departDelay="-0.50" arrival="185.00" arrivalLane="244450456#0_0" arrivalPos="5.33" arrivalSpeed="9.85" duration="170.00" routeLength="730.64" waitSteps="98" timeLoss="132.13" rerouteNo="0" devices="tripinfo_10" vType="passenger" speedFactor="1.00" vaporized=""/>
    <tripinfo id="78" depart="84.00" departLane="157964878#9_0" departPos="5.10" departSpeed="0.00" departDelay="-0.50" arrival="189.00" arrivalLane="-131473129#0_0" arrivalPos="1.80" arrivalSpeed="5.57" duration="105.00" routeLength="471.67" waitSteps="52" timeLoss="73.90" rerouteNo="0" devices="tripinfo_78" vType="passenger" speedFactor="1.00" vaporized=""/>
    <tripinfo id="89" depart="96.00" departLane="-334849019#0_0" departPos="5.10" departSpeed="0.00" departDelay="0.00" arrival="192.00" arrivalLane="407202572#1_0" arrivalPos="0.72" arrivalSpeed="22.10" duration="96.00" routeLength="647.92" waitSteps="42" timeLoss="66.49" rerouteNo="0" devices="tripinfo_89" vType="passenger" speedFactor="1.00" vaporized=""/>
    <tripinfo id="25" depart="30.00" departLane="25715402#3_0" departPos="5.10" departSpeed="0.00" departDelay="0.00" arrival="198.00" arrivalLane="-268564487#1_0" arrivalPos="0.20" arrivalSpeed="21.82" duration="168.00" routeLength="1357.69" waitSteps="67" timeLoss="103.93" rerouteNo="0" devices="tripinfo_25" vType="passenger" speedFactor="1.00" vaporized=""/>
    <tripinfo id="59" depart="63.00" departLane="414194146#0_0" departPos="5.10" departSpeed="0.00" departDelay="-0.50" arrival="206.00" arrivalLane="366116366#1_0" arrivalPos="5.49" arrivalSpeed="25.28" duration="143.00" routeLength="1426.74" waitSteps="44" timeLoss="86.24" rerouteNo="0" devices="tripinfo_59" vType="passenger" speedFactor="1.00" vaporized=""/>
    <tripinfo id="119" depart="143.00" departLane="-4947947#9_0" departPos="0.28" departSpeed="0.00" departDelay="16.50" arrival="207.00" arrivalLane="82994199#1_0" arrivalPos="76.22" arrivalSpeed="13.60" duration="64.00" routeLength="326.61" waitSteps="26" timeLoss="39.49" rerouteNo="0" devices="tripinfo_119" vType="passenger" speedFactor="1.00" vaporized=""/>
    <tripinfo id="84" depart="91.00" departLane="51423103#4_0" departPos="5.10" departSpeed="0.00" departDelay="0.00" arrival="214.00" arrivalLane="515156290#1_0" arrivalPos="10.76" arrivalSpeed="27.28" duration="123.00" routeLength="966.36" waitSteps="51" timeLoss="75.34" rerouteNo="0" devices="tripinfo_84" vType="passenger" speedFactor="1.00" vaporized=""/>
    <tripinfo id="159" depart="164.00" departLane="329022967#5_0" departPos="0.20" departSpeed="0.00" departDelay="0.00" arrival="216.00" arrivalLane="-407513573#1_0" arrivalPos="30.06" arrivalSpeed="15.60" duration="52.00" routeLength="599.89" waitSteps="15" timeLoss="24.34" rerouteNo="0" devices="tripinfo_159" vType="passenger" speedFactor="1.00" vaporized=""/>
    <tripinfo id="18" depart="23.00" departLane="198725737#7_0" departPos="5.10" departSpeed="0.00" departDelay="-0.50" arrival="218.00" arrivalLane="-267609453#2_0" arrivalPos="30.24" arrivalSpeed="11.20" duration="195.00" routeLength="1226.16" waitSteps="90" timeLoss="140.31" rerouteNo="0" devices="tripinfo_18" vType="passenger" speedFactor="1.00" vaporized=""/>
    <tripinfo id="129" depart="133.00" departLane="289004415#0_0" departPos="5.10" departSpeed="0.00" departDelay="0.00" arrival="221.00" arrivalLane="204408788#1_0" arrivalPos="4.79" arrivalSpeed="13.03" duration="88.00" routeLength="586.59" waitSteps="42" timeLoss="57.96" rerouteNo="0" devices="tripinfo_129" vType="passenger" speedFactor="1.00" vaporized=""/>
    <tripinfo id="44" depart="51.00" departLane="238208422#4_1" departPos="5.10" departSpeed="0.00" departDelay="0.00" arrival="227.00" arrivalLane="-236724321#1_0" arrivalPos="27.41" arrivalSpeed="2.20" duration="176.00" routeLength="884.07" waitSteps="65" timeLoss="102.54" rerouteNo="0" devices="tripinfo_44" vType="passenger" speedFactor="1.00" vaporized=""/>
    <tripinfo id="61" depart="66.00" departLane="268564488#0_0" departPos="0.99" departSpeed="0.00" departDelay="0.00" arrival="232.00" arrivalLane="286098898#5_1" arrivalPos="18.71" arrivalSpeed="15.01" duration="166.00" routeLength="449.23" waitSteps="113" timeLoss="146.39" rerouteNo="0" devices="tripinfo_61" vType="passenger" speedFactor="1.00" vaporized=""/>
    <tripinfo id="87" depart="94.00" departLane="329022966#1_0" departPos="5.10" departSpeed="0.00" departDelay="0.00" arrival="236.00" arrivalLane="329022967#4_0" arrivalPos="4.14" arrivalSpeed="7.93" duration="142.00" routeLength="779.65" waitSteps="76" timeLoss="113.34" rerouteNo="0" devices="tripinfo_87" vType="passenger" speedFactor="1.00" vaporized=""/>
    <tripinfo id="30" depart="36.00" departLane="51423103#1_0" departPos="5.10" departSpeed="0.00" departDelay="0.00" arrival="248.00" arrivalLane="-308976804#11_0" arrivalPos="252.57" arrivalSpeed="22.14" duration="212.00" routeLength="1674.30" waitSteps="92" timeLoss="132.29" rerouteNo="0" devices="tripinfo_30" vType="passenger" speedFactor="1.00" vaporized=""/>
    <tripinfo id="29" depart="35.00" departLane="441378955#0_0" departPos="5.10" departSpeed="0.00" departDelay="0.00" arrival="253.00" arrivalLane="407513570#1_0" arrivalPos="51.85" arrivalSpeed="21.70" duration="218.00" routeLength="1664.28" waitSteps="97" timeLoss="147.81" rerouteNo="0" devices="tripinfo_29" vType="passenger" speedFactor="1.00" vaporized=""/>
    <tripinfo id="20" depart="25.00" departLane="360851263#2_1" departPos="5.10" departSpeed="0.00" departDelay="-0.50" arrival="253.00" arrivalLane="-269789739#13_0" arrivalPos="8.24" arrivalSpeed="9.06" duration="228.00" routeLength="849.85" waitSteps="135" timeLoss="174.59" rerouteNo="0" devices="tripinfo_20" vType="passenger" speedFactor="1.00" vaporized=""/>
    <tripinfo id="21" depart="26.00" departLane="50823701#2_1" departPos="5.10" departSpeed="0.00" departDelay="-0.50" arrival="255.00" arrivalLane="413949761#1_0" arrivalPos="45.17" arrivalSpeed="26.85" duration="229.00" routeLength="1454.41" waitSteps="125" timeLoss="170.28" rerouteNo="0" devices="tripinfo_21" vType="passenger" speedFactor="1.00" vaporized=""/>
    <tripinfo id="15" depart="20.00" departLane="264551742#2_0" departPos="5.10" departSpeed="0.00" departDelay="-0.50" arrival="258.00" arrivalLane="106335678#0_0" arrivalPos="98.12" arrivalSpeed="13.56" duration="238.00" routeLength="1414.07" waitSteps="131" timeLoss="169.65" rerouteNo="0" devices="tripinfo_15" vType="passenger" speedFactor="1.00" vaporized=""/>
    <tripinfo id="81" depart="86.00" departLane="268564472#2_0" departPos="5.10" departSpeed="0.00" departDelay="-0.50" arrival="272.00" arrivalLane="246651378#1_2" arrivalPos="4.79" arrivalSpeed="6.62" duration="186.00" routeLength="747.37" waitSteps="106" timeLoss="146.28" rerouteNo="0" devices="tripinfo_81" vType="passenger" speedFactor="1.00" vaporized=""/>
    <tripinfo id="211" depart="211.00" departLane="-269505245#1_0" departPos="5.10" departSpeed="0.00" departDelay="0.00" arrival="272.00" arrivalLane="384694136#0_0" arrivalPos="0.20" arrivalSpeed="5.69" duration="61.00" routeLength="117.20" waitSteps="42" timeLoss="55.33" rerouteNo="0" devices="tripinfo_211" vType="passenger" speedFactor="1.00" vaporized=""/>
    <tripinfo id="192" depart="192.00" departLane="312603793#3_0" departPos="5.10" departSpeed="0.00" departDelay="-0.50" arrival="277.00" arrivalLane="52513625#8_1" arrivalPos="1.94" arrivalSpeed="8.89" duration="85.00" routeLength="670.64" waitSteps="31" timeLoss="52.36" rerouteNo="0" devices="tripinfo_192" vType="passenger" speedFactor="1.00" vaporized=""/>
    <tripinfo id="252" depart="245.00" departLane="506351786#2_0" departPos="5.10" departSpeed="0.00" departDelay="-0.50" arrival="279.00" arrivalLane="217901698#2_0" arrivalPos="32.89" arrivalSpeed="12.96" duration="34.00" routeLength="462.39" waitSteps="0" timeLoss="11.78" rerouteNo="0" devices="tripinfo_252" vType="passenger" speedFactor="1.00" vaporized=""/>
    <tripinfo id="138" depart="143.00" departLane="51911170#0_0" departPos="5.10" departSpeed="0.00" departDelay="0.00" arrival="280.00" arrivalLane="199239731#2_1" arrivalPos="4.87" arrivalSpeed="22.03" duration="137.00" routeLength="413.29" waitSteps="90" timeLoss="119.74" rerouteNo="0" devices="tripinfo_138" vType="passenger" speedFactor="1.00" vaporized=""/>
    <tripinfo id="5" depart="6.00" departLane="51885100#5_0" departPos="5.10" departSpeed="0.00" departDelay="0.00" arrival="280.00" arrivalLane="22764020#0_0" arrivalPos="19.19" arrivalSpeed="24.12" duration="274.00" routeLength="1584.06" waitSteps="155" timeLoss="212.92" rerouteNo="0" devices="tripinfo_5" vType="passenger" speedFactor="1.00" vaporized=""/>
    <tripinfo id="233" depart="228.00" departLane="131457247#2_0" departPos="5.10" departSpeed="0.00" departDelay="0.00" arrival="280.00" arrivalLane="131457246#6_0" arrivalPos="34.56" arrivalSpeed="12.85" duration="52.00" routeLength="212.26" waitSteps="26" timeLoss="35.77" rerouteNo="0" devices="tripinfo_233" vType="passenger" speedFactor="1.00" vaporized=""/>
    <tripinfo id="93" depart="99.00" departLane="131457243#1_0" departPos="5.10" departSpeed="0.00" departDelay="0.00" arrival="281.00" arrivalLane="255247886#3_0" arrivalPos="0.20" arrivalSpeed="7.30" duration="182.00" routeLength="1096.91" waitSteps="101" timeLoss="139.28" rerouteNo="0" devices="tripinfo_93" vType="passenger" speedFactor="1.00" vaporized=""/>
    <tripinfo id="50" depart="55.00" departLane="40606341#0_0" departPos="0.20" departSpeed="0.00" departDelay="0.00" arrival="282.00" arrivalLane="268564486#0_0" arrivalPos="158.46" arrivalSpeed="21.51" duration="227.00" routeLength="1504.75" waitSteps="116" timeLoss="159.69" rerouteNo="0" devices="tripinfo_50" vType="passenger" speedFactor="1.00" vaporized=""/>
    <tripinfo id="53" depart="58.00" departLane="-445405189_0" departPos="5.10" departSpeed="0.00" departDelay="0.00" arrival="285.00" arrivalLane="407513573#0_0" arrivalPos="34.32" arrivalSpeed="13.36" duration="227.00" routeLength="987.26" waitSteps="139" timeLoss="184.25" rerouteNo="0" devices="tripinfo_53" vType="passenger" speedFactor="1.00" vaporized=""/>
    <tripinfo id="120" depart="127.00" departLane="-60730602#4_0" departPos="5.10" departSpeed="0.00" departDelay="0.00" arrival="290.00" arrivalLane="-197130375#4_0" arrivalPos="41.66" arrivalSpeed="19.51" duration="163.00" routeLength="835.09" waitSteps="81" timeLoss="120.08" rerouteNo="0" devices="tripinfo_120" vType="passenger" speedFactor="1.00" vaporized=""/>
    <tripinfo id="111" depart="118.00" departLane="407513570#7_0" departPos="5.10" departSpeed="0.00" departDelay="-0.50" arrival="292.00" arrivalLane="-287316013#3_0" arrivalPos="21.10" arrivalSpeed="20.98" duration="174.00" routeLength="1201.00" waitSteps="88" timeLoss="119.26" rerouteNo="0" devices="tripinfo_111" vType="passenger" speedFactor="1.00" vaporized=""/>
    <tripinfo id="161" depart="165.00" departLane="-308987019#7_0" departPos="5.10" departSpeed="0.00" departDelay="-0.50" arrival="297.00" arrivalLane="506351807#5_0" arrivalPos="37.55" arrivalSpeed="15.51" duration="132.00" routeLength="703.06" waitSteps="69" timeLoss="93.28" rerouteNo="0" devices="tripinfo_161" vType="passenger" speedFactor="1.00" vaporized=""/>
    <tripinfo id="116" depart="122.00" departLane="270025385#0_3" departPos="0.20" departSpeed="0.00" departDelay="-0.50" arrival="304.00" arrivalLane="51423113_1" arrivalPos="35.65" arrivalSpeed="13.82" duration="182.00" routeLength="1493.71" waitSteps="67" timeLoss="116.93" rerouteNo="0" devices="tripinfo_116" vType="passenger" speedFactor="1.00" vaporized=""/>
    <tripinfo id="179" depart="182.00" departLane="51919208#1_0" departPos="5.10" departSpeed="0.00" departDelay="-0.50" arrival="314.00" arrivalLane="52513626_0" arrivalPos="110.96" arrivalSpeed="21.91" duration="132.00" routeLength="1019.85" waitSteps="47" timeLoss="79.23" rerouteNo="0" devices="tripinfo_179" vType="passenger" speedFactor="1.00" vaporized=""/>
    <tripinfo id="135" depart="139.00" departLane="449290531#0_0" departPos="5.10" departSpeed="0.00" departDelay="0.00" arrival="315.00" arrivalLane="256263215#2_0" arrivalPos="39.07" arrivalSpeed="13.38" duration="176.00" routeLength="1875.87" waitSteps="47" timeLoss="80.58" rerouteNo="0" devices="tripinfo_135" vType="passenger" speedFactor="1.00" vaporized=""/>
    <tripinfo id="131" depart="135.00" departLane="-199980015#0_0" departPos="5.10" departSpeed="0.00" departDelay="0.00" arrival="321.00" arrivalLane="51919248_0" arrivalPos="6.52" arrivalSpeed="7.55" duration="186.00" routeLength="887.15" waitSteps="114" timeLoss="147.36" rerouteNo="0" devices="tripinfo_131" vType="passenger" speedFactor="1.00" vaporized=""/>
    <tripinfo id="191" depart="192.00" departLane="265002098#0_0" departPos="5.10" departSpeed="0.00" departDelay="0.00" arrival="325.00" arrivalLane="312929522#2_0" arrivalPos="0.20" arrivalSpeed="12.83" duration="133.00" routeLength="984.48" waitSteps="46" timeLoss="62.84" rerouteNo="0" devices="tripinfo_191" vType="passenger" speedFactor="1.00" vaporized=""/>
    <tripinfo id="63" depart="69.00" departLane="264994983_0" departPos="5.10" departSpeed="0.00" departDelay="0.00" arrival="325.00" arrivalLane="-232106525#3_0" arrivalPos="1.72" arrivalSpeed="8.39" duration="256.00" routeLength="1353.81" waitSteps="157" timeLoss="195.55" rerouteNo="0" devices="tripinfo_63" vType="passenger" speedFactor="1.00" vaporized=""/>
    <tripinfo id="42" depart="49.00" departLane="330745380#0_0" departPos="3.00" departSpeed="0.00" departDelay="0.00" arrival="328.00" arrivalLane="407513570#0_0" arrivalPos="3.37" arrivalSpeed="21.87" duration="279.00" routeLength="1176.37" waitSteps="178" timeLoss="235.88" rerouteNo="0" devices="tripinfo_42" vType="passenger" speedFactor="1.00" vaporized=""/>
    <tripinfo id="245" depart="238.00" departLane="51919208#4_0" departPos="5.10" departSpeed="0.00" departDelay="-0.50" arrival="329.00" arrivalLane="333293958#4_1" arrivalPos="2.47" arrivalSpeed="27.68" duration="91.00" routeLength="659.76" waitSteps="40" timeLoss="66.11" rerouteNo="0" devices="tripinfo_245" vType="passenger" speedFactor="1.00" vaporized=""/>
    <tripinfo id="11" depart="16.00" departLane="264399458#1_0" departPos="5.10" departSpeed="0.00" departDelay="-0.50" arrival="338.00" arrivalLane="-268564474#3_0" arrivalPos="86.60" arrivalSpeed="13.32" duration="322.00" routeLength="2071.47" waitSteps="165" timeLoss="230.09" rerouteNo="0" devices="tripinfo_11" vType="passenger" speedFactor="1.00" vaporized=""/>
    <tripinfo id="106" depart="112.00" departLane="33679741#23_0" departPos="5.10" departSpeed="0.00" departDelay="0.00" arrival="344.00" arrivalLane="360851263#3_1" arrivalPos="103.87" arrivalSpeed="23.70" duration="232.00" routeLength="1414.65" waitSteps="126" timeLoss="179.11" rerouteNo="0" devices="tripinfo_106" vType="passenger" speedFactor="1.00" vaporized=""/>
    <tripinfo id="45" depart="51.00" departLane="189615569#2_0" departPos="5.10" departSpeed="0.00" departDelay="-0.50" arrival="350.00" arrivalLane="192888508_1" arrivalPos="77.03" arrivalSpeed="20.16" duration="299.00" routeLength="2113.88" waitSteps="144" timeLoss="207.83" rerouteNo="0" devices="tripinfo_45" vType="passenger" speedFactor="1.00" vaporized=""/>
    <tripinfo id="153" depart="157.00" departLane="334849011#2_1" departPos="5.10" departSpeed="0.00" departDelay="-0.50" arrival="350.00" arrivalLane="-288351091#4_0" arrivalPos="24.44" arrivalSpeed="13.49" duration="193.00" routeLength="840.22" waitSteps="121" timeLoss="154.23" rerouteNo="0" devices="tripinfo_153" vType="passenger" speedFactor="1.00" vaporized=""/>
    <tripinfo id="82" depart="88.00" departLane="-160307905#0_0" departPos="0.87" departSpeed="0.00" departDelay="-0.50" arrival="365.00" arrivalLane="244450423_0" arrivalPos="3.48" arrivalSpeed="9.08" duration="277.00" routeLength="1128.01" waitSteps="168" timeLoss="232.27" rerouteNo="0" devices="tripinfo_82" vType="passenger" speedFactor="1.00" vaporized=""/>
    <tripinfo id="298" depart="292.00" departLane="307701131_0" departPos="5.10" departSpeed="0.00" departDelay="-0.50" arrival="369.00" arrivalLane="226831239#2_0" arrivalPos="95.65" arrivalSpeed="22.18" duration="77.00" routeLength="1056.66" waitSteps="20" timeLoss="38.20" rerouteNo="0" devices="tripinfo_298" vType="passenger" speedFactor="1.00" vaporized=""/>
    <tripinfo id="260" depart="253.00" departLane="268564472#1_0" departPos="5.10" departSpeed="0.00" departDelay="0.00" arrival="371.00" arrivalLane="-270025399#2_0" arrivalPos="4.67" arrivalSpeed="10.28" duration="118.00" routeLength="521.80" waitSteps="62" timeLoss="86.55" rerouteNo="0" devices="tripinfo_260" vType="passenger" speedFactor="1.00" vaporized=""/>
    <tripinfo id="125" depart="130.00" departLane="60730602#2_0" departPos="5.10" departSpeed="0.00" departDelay="0.00" arrival="371.00" arrivalLane="-287316013#4_0" arrivalPos="3.51" arrivalSpeed="7.38" duration="241.00" routeLength="859.69" waitSteps="144" timeLoss="193.52" rerouteNo="0" devices="tripinfo_125" vType="passenger" speedFactor="1.00" vaporized=""/>
    <tripinfo id="107" depart="116.00" departLane="23416666#0_0" departPos="0.20" departSpeed="0.00" departDelay="3.00" arrival="373.00" arrivalLane="506322836#3_1" arrivalPos="116.62" arrivalSpeed="24.38" duration="257.00" routeLength="1214.34" waitSteps="151" timeLoss="208.95" rerouteNo="0" devices="tripinfo_107" vType="passenger" speedFactor="1.00" vaporized=""/>
    <tripinfo id="184" depart="187.00" departLane="243317514#4_1" departPos="1.72" departSpeed="0.00" departDelay="0.00" arrival="376.00" arrivalLane="-51911170#3_0" arrivalPos="26.18" arrivalSpeed="12.77" duration="189.00" routeLength="1159.45" waitSteps="101" timeLoss="141.97" rerouteNo="0" devices="tripinfo_184" vType="passenger" speedFactor="1.00" vaporized=""/>
    <tripinfo id="140" depart="145.00" departLane="238208424#3_0" departPos="5.10" departSpeed="0.00" departDelay="0.00" arrival="379.00" arrivalLane="33679741#2_0" arrivalPos="15.34" arrivalSpeed="10.80" duration="234.00" routeLength="1319.80" waitSteps="101" timeLoss="179.58" rerouteNo="0" devices="tripinfo_140" vType="passenger" speedFactor="1.00" vaporized=""/>
    <tripinfo id="101" depart="108.00" departLane="106335676#5_0" departPos="5.10" departSpeed="0.00" departDelay="0.00" arrival="382.00" arrivalLane="154829883#1_0" arrivalPos="57.02" arrivalSpeed="13.46" duration="274.00" routeLength="2567.19" waitSteps="108" timeLoss="159.50" rerouteNo="0" devices="tripinfo_101" vType="passenger" speedFactor="1.00" vaporized=""/>
    <tripinfo id="152" depart="157.00" departLane="238208424#4_0" departPos="0.20" departSpeed="0.00" departDelay="0.00" arrival="385.00" arrivalLane="25715401#0_0" arrivalPos="167.13" arrivalSpeed="21.91" duration="228.00" routeLength="1734.03" waitSteps="85" timeLoss="154.61" rerouteNo="0" devices="tripinfo_152" vType="passenger" speedFactor="1.00" vaporized=""/>
    <tripinfo id="147" depart="151.00" departLane="29043700#0_0" departPos="5.10" departSpeed="0.00" departDelay="-0.50" arrival="388.00" arrivalLane="60787469#2_0" arrivalPos="108.46" arrivalSpeed="12.89" duration="237.00" routeLength="1296.72" waitSteps="116" timeLoss="144.72" rerouteNo="0" devices="tripinfo_147" vType="passenger" speedFactor="1.00" vaporized=""/>
    <tripinfo id="17" depart="22.00" departLane="407513573#1_0" departPos="5.10" departSpeed="0.00" departDelay="-0.50" arrival="388.00" arrivalLane="182973464#6_0" arrivalPos="34.75" arrivalSpeed="13.24" duration="366.00" routeLength="2279.72" waitSteps="196" timeLoss="257.72" rerouteNo="0" devices="tripinfo_17" vType="passenger" speedFactor="1.00" vaporized=""/>
    <tripinfo id="100" depart="107.00" departLane="51919245#0_1" departPos="5.10" departSpeed="0.00" departDelay="0.00" arrival="389.00" arrivalLane="312929530#1_0" arrivalPos="150.88" arrivalSpeed="21.60" duration="282.00" routeLength="1363.35" waitSteps="173" timeLoss="225.85" rerouteNo="0" devices="tripinfo_100" vType="passenger" speedFactor="1.00" vaporized=""/>
    <tripinfo id="32" depart="40.00" departLane="333279724_0" departPos="2.02" departSpeed="0.00" departDelay="0.00" arrival="390.00" arrivalLane="157964878#21_0" arrivalPos="0.29" arrivalSpeed="12.96" duration="350.00" routeLength="2092.30" waitSteps="184" timeLoss="239.06" rerouteNo="0" devices="tripinfo_32" vType="passenger" speedFactor="1.00" vaporized=""/>
    <tripinfo id="321" depart="312.00" departLane="-289004415#3_0" departPos="5.10" departSpeed="0.00" departDelay="-0.50" arrival="391.00" arrivalLane="-51423093#3_0" arrivalPos="34.61" arrivalSpeed="12.61" duration="79.00" routeLength="576.81" waitSteps="31" timeLoss="46.33" rerouteNo="0" devices="tripinfo_321" vType="passenger" speedFactor="1.00" vaporized=""/>
    <tripinfo id="154" depart="158.00" departLane="131473113#0_0" departPos="0.94" departSpeed="0.00" departDelay="0.00" arrival="398.00" arrivalLane="312929522#5_0" arrivalPos="0.20" arrivalSpeed="13.39" duration="240.00" routeLength="2085.23" waitSteps="82" timeLoss="131.51" rerouteNo="0" devices="tripinfo_154" vType="passenger" speedFactor="1.00" vaporized=""/>
    <tripinfo id="35" depart="41.00" departLane="287316013#2_0" departPos="5.10" departSpeed="0.00" departDelay="-0.50" arrival="398.00" arrivalLane="237121377#4_0" arrivalPos="4.72" arrivalSpeed="7.39" duration="357.00" routeLength="2318.96" waitSteps="180" timeLoss="249.02" rerouteNo="0" devices="tripinfo_35" vType="passenger" speedFactor="1.00" vaporized=""/>
    <tripinfo id="150" depart="155.00" departLane="-25715402#3_0" departPos="5.10" departSpeed="0.00" departDelay="0.00" arrival="401.00" arrivalLane="131457247#11_0" arrivalPos="66.56" arrivalSpeed="13.24" duration="246.00" routeLength="1702.03" waitSteps="110" timeLoss="158.64" rerouteNo="0" devices="tripinfo_150" vType="passenger" speedFactor="1.00" vaporized=""/>
    <tripinfo id="180" depart="183.00" departLane="506322836#5_0" departPos="3.86" departSpeed="0.00" departDelay="-0.50" arrival="407.00" arrivalLane="25715400#0_0" arrivalPos="4.00" arrivalSpeed="6.65" duration="224.00" routeLength="1291.73" waitSteps="128" timeLoss="165.08" rerouteNo="0" devices="tripinfo_180" vType="passenger" speedFactor="1.00" vaporized=""/>
    <tripinfo id="231" depart="239.00" departLane="198725737#9_0" departPos="4.06" departSpeed="0.00" departDelay="12.50" arrival="412.00" arrivalLane="268564486#0_0" arrivalPos="158.46" arrivalSpeed="22.08" duration="173.00" routeLength="930.45" waitSteps="107" timeLoss="130.72" rerouteNo="0" devices="tripinfo_231" vType="passenger" speedFactor="1.00" vaporized=""/>
    <tripinfo id="187" depart="188.00" departLane="-51911170#4_0" departPos="5.10" departSpeed="0.00" departDelay="-0.50" arrival="414.00" arrivalLane="274809899#0_0" arrivalPos="12.47" arrivalSpeed="9.14" duration="226.00" routeLength="1907.28" waitSteps="97" timeLoss="150.29" rerouteNo="0" devices="tripinfo_187" vType="passenger" speedFactor="1.00" vaporized=""/>
    <tripinfo id="141" depart="146.00" departLane="-329022967#12_0" departPos="5.10" departSpeed="0.00" departDelay="0.00" arrival="414.00" arrivalLane="509695170#4_0" arrivalPos="34.66" arrivalSpeed="12.84" duration="268.00" routeLength="1599.39" waitSteps="135" timeLoss="193.41" rerouteNo="0" devices="tripinfo_141" vType="passenger" speedFactor="1.00" vaporized=""/>
    <tripinfo id="68" depart="74.00" departLane="668070774_2" departPos="5.10" departSpeed="0.00" departDelay="-0.50" arrival="415.00" arrivalLane="468047667_0" arrivalPos="4.60" arrivalSpeed="6.96" duration="341.00" routeLength="2740.54" waitSteps="166" timeLoss="234.22" rerouteNo="0" devices="tripinfo_68" vType="passenger" speedFactor="1.00" vaporized=""/>